% Model:              Nankai_mu008_1E10_xsw_default.mph
% Version:            COMSOL 5.5.0.359
% Date:               Aug 12 2024, 18:32
% Dimension:          1
% Nodes:              6631
% Expressions:        1
% Description:        Line graph
% X                       Height
-170                      -20
-169.95002939447386       -20
-169.90005878894772       -20
-169.85008818342152       -20
-169.80011757789538       -20
-169.7501469723692        -20
-169.70017636684304       -20
-169.65020576131687       -20
-169.6002351557907        -20
-169.55026455026456       -20
-169.5002939447384        -20
-169.45032333921222       -20
-169.40035273368608       -20
-169.35038212815994       -20
-169.30041152263374       -20
-169.2504409171076        -20
-169.20047031158146       -20
-169.15049970605529       -20
-169.10052910052912       -20
-169.05055849500297       -20
-169.00058788947683       -20
-168.9506172839507        -20
-168.9006466784245        -20
-168.8506760728983        -20
-168.8007054673721        -20
-168.75073486184596       -20
-168.7007642563198        -20
-168.65079365079367       -20
-168.60082304526753       -20
-168.55085243974136       -20
-168.5008818342152        -20
-168.45091122868905       -20
-168.4009406231629        -20
-168.3509700176367        -20
-168.30099941211057       -20
-168.2510288065844        -20
-168.20105820105826       -20
-168.1510875955321        -20
-168.10111699000592       -20
-168.05114638447975       -20
-168.00117577895358       -20
-167.95120517342744       -20
-167.9012345679013        -20
-167.85126396237513       -20
-167.80129335684893       -20
-167.75132275132276       -20
-167.70135214579665       -20
-167.65138154027048       -20
-167.6014109347443        -20
-167.55144032921817       -20
-167.50146972369197       -20
-167.4514991181658        -20
-167.40152851263963       -20
-167.35155790711346       -20
-167.30158730158732       -20
-167.25161669606115       -20
-167.201646090535         -20
-167.15167548500887       -20
-167.10170487948272       -20
-167.05173427395655       -20
-167.00176366843039       -20
-166.95179306290422       -20
-166.90182245737805       -20
-166.85185185185188       -20
-166.80188124632573       -20
-166.7519106407996        -20
-166.70194003527345       -20
-166.65196942974725       -20
-166.60199882422106       -20
-166.55202821869486       -20
-166.50205761316872       -20
-166.45208700764258       -20
-166.40211640211643       -20
-166.3521457965903        -20
-166.30217519106412       -20
-166.25220458553795       -20
-166.2022339800118        -20
-166.15226337448564       -20
-166.10229276895944       -20
-166.0523221634333        -20
-166.00235155790716       -20
-165.95238095238102       -20
-165.90241034685485       -20
-165.8524397413287        -20
-165.80246913580254       -20
-165.75249853027637       -20
-165.70252792475017       -20
-165.652557319224         -20
-165.60258671369786       -20
-165.55261610817166       -20
-165.50264550264552       -20
-165.45267489711938       -20
-165.40270429159324       -20
-165.35273368606704       -20
-165.3027630805409        -20
-165.25279247501476       -20
-165.20282186948862       -20
-165.15285126396245       -20
-165.10288065843628       -20
-165.05291005291014       -20
-165.002939447384         -20
-164.95296884185777       -20
-164.9029982363316        -20
-164.85302763080546       -20
-164.80305702527926       -20
-164.75308641975312       -20
-164.70311581422698       -20
-164.65314520870083       -20
-164.60317460317466       -20
-164.55320399764852       -20
-164.50323339212238       -20
-164.4532627865962        -20
-164.40329218107001       -20
-164.35332157554384       -20
-164.3033509700177        -20
-164.25338036449156       -20
-164.20340975896534       -20
-164.15343915343917       -20
-164.10346854791302       -20
-164.05349794238685       -20
-164.0035273368607        -20
-163.9535567313346        -20
-163.90358612580843       -20
-163.85361552028226       -20
-163.80364491475612       -20
-163.75367430922995       -20
-163.70370370370378       -20
-163.6537330981776        -20
-163.60376249265144       -20
-163.55379188712527       -20
-163.50382128159913       -20
-163.45385067607296       -20
-163.40388007054682       -20
-163.35390946502068       -20
-163.30393885949454       -20
-163.25396825396834       -20
-163.2039976484422        -20
-163.15402704291603       -20
-163.10405643738983       -20
-163.0540858318637        -20
-163.00411522633752       -20
-162.95414462081135       -20
-162.90417401528515       -20
-162.85420340975898       -20
-162.8042328042328        -20
-162.7542621987067        -20
-162.70429159318053       -20
-162.6543209876544        -20
-162.60435038212827       -20
-162.5543797766021        -20
-162.50440917107593       -20
-162.4544385655498        -20
-162.40446796002362       -20
-162.35449735449743       -20
-162.30452674897126       -20
-162.2545561434451        -20
-162.20458553791894       -20
-162.15461493239278       -20
-162.10464432686666       -20
-162.05467372134052       -20
-162.00470311581435       -20
-161.95473251028812       -20
-161.90476190476195       -20
-161.8547912992358        -20
-161.80482069370962       -20
-161.75485008818347       -20
-161.70487948265733       -20
-161.6549088771312        -20
-161.60493827160502       -20
-161.55496766607885       -20
-161.50499706055268       -20
-161.4550264550265        -20
-161.40505584950034       -20
-161.3550852439742        -20
-161.30511463844806       -20
-161.25514403292192       -20
-161.20517342739575       -20
-161.15520282186958       -20
-161.10523221634347       -20
-161.0552616108173        -20
-161.00529100529113       -20
-160.955320399765         -20
-160.90534979423882       -20
-160.85537918871262       -20
-160.80540858318645       -20
-160.75543797766028       -20
-160.70546737213414       -20
-160.65549676660797       -20
-160.6055261610818        -20
-160.55555555555563       -20
-160.50558495002952       -20
-160.45561434450332       -20
-160.40564373897718       -20
-160.35567313345103       -20
-160.30570252792486       -20
-160.25573192239867       -20
-160.20576131687253       -20
-160.15579071134638       -20
-160.10582010582021       -20
-160.05584950029407       -20
-160.0058788947679        -20
-159.95590828924173       -17.497882013605516
-159.90593768371556       -16.513020000137843
-159.8559670781894        -15.95907182823138
-159.80599647266325       -15.5721409643571
-159.7560258671371        -15.27463720435361
-159.70605526161094       -15.032966917079984
-159.65608465608477       -14.82950431298714
-159.60611405055863       -14.653842991372482
-159.55614344503246       -14.499322929892394
-159.5061728395063        -14.361423388572765
-159.45620223398015       -14.236934678603024
-159.40623162845398       -14.123495604186532
-159.35626102292784       -14.019318465486634
-159.30629041740164       -13.923017166541943
-159.25631981187547       -13.833495258395484
-159.2063492063493        -13.749870466393121
-159.15637860082313       -13.671422303341108
-159.106407995297         -13.59755478097737
-159.05643738977085       -13.52776928139985
-159.0064667842447        -13.461644437508847
-158.9564961787185        -13.39882095578203
-158.90652557319234       -13.338989992468937
-158.8565549676662        -13.281884129355
-158.80658436214006       -13.227270281218724
-158.7566137566139        -13.17494405909557
-158.70664315108775       -13.12472524486561
-158.65667254556158       -13.076454124180831
-158.60670194003538       -13.029988489489838
-158.5567313345092        -12.985201171387171
-158.50676072898304       -12.941977990318607
-158.45679012345687       -12.900216045572758
-158.40681951793073       -12.859822277029169
-158.3568489124046        -12.820712249094987
-158.30687830687845       -12.782809116871471
-158.25690770135228       -12.746042742732731
-158.20693709582608       -12.710348937797525
-158.1569664902999        -12.675668807687083
-158.10699588477377       -12.64194818582342
-158.05702527924763       -12.609137140577548
-158.00705467372143       -12.577189545012063
-157.95708406819531       -12.546062699914158
-157.90711346266914       -12.51571700238908
-157.857142857143         -12.486115653563132
-157.80717225161683       -12.457224399984112
-157.75720164609066       -12.429011304162904
-157.7072310405645        -12.401446540402175
-157.6572604350383        -12.37450221263998
-157.60728982951213       -12.34815219151998
-157.55731922398596       -12.322371968303012
-157.50734861845982       -12.297138523573544
-157.45737801293365       -12.27243020897849
-157.40740740740748       -12.248226640476336
-157.35743680188136       -12.224508601777739
-157.30746619635522       -12.201257956831872
-157.25749559082905       -12.178457570360484
-157.2075249853029        -12.156091235567429
-157.15755437977677       -12.134143608259901
-157.1075837742506        -12.112600146711017
-157.05761316872443       -12.091447056673447
-157.00764256319826       -12.070671241023671
-156.9576719576721        -12.050260253576415
-156.90770135214592       -12.03020225666189
-156.85773074661975       -12.010485982103624
-156.8077601410936        -11.991100695275026
-156.75778953556747       -11.972036161947697
-156.70781893004127       -11.953282617675278
-156.65784832451513       -11.934830739483681
-156.607877718989         -11.91667161966209
-156.55790711346282       -11.898796741470646
-156.50793650793665       -11.881197956598967
-156.45796590241048       -11.863867464226074
-156.4079952968843        -11.846797791547315
-156.3580246913581        -11.829981775646546
-156.30805408583197       -11.813412546603617
-156.2580834803058        -11.797083511737402
-156.20811287477963       -11.780988340894192
-156.15814226925343       -11.7651209526991
-156.1081716637273        -11.749475501695954
-156.05820105820112       -11.734046366307522
-156.008230452675         -11.71882813755428
-155.95825984714884       -11.703815608474779
-155.90828924162273       -11.689003764196281
-155.85831863609656       -11.674387772607844
-155.80834803057041       -11.659962975592943
-155.75837742504422       -11.645724880781467
-155.70840681951807       -11.631669153784907
-155.6584362139919        -11.617791610880852
-155.60846560846574       -11.604088212116272
-155.55849500293954       -11.590555054800872
-155.50852439741337       -11.577188367364528
-155.45855379188723       -11.563984503554487
-155.40858318636106       -11.550939936950112
-155.35861258083492       -11.53805125577459
-155.30864197530877       -11.525315157984336
-155.2586713697826        -11.512728446618647
-155.2087007642564        -11.500288025393118
-155.15873015873024       -11.487990894521685
-155.10875955320412       -11.475834146753144
-155.05878894767798       -11.463814963609142
-155.0088183421518        -11.451930611811486
-154.95884773662567       -11.440178439887388
-154.9088771310995        -11.428555874942093
-154.85890652557333       -11.41706041958922
-154.80893592004716       -11.405689649029501
-154.758965314521         -11.39444120826949
-154.70899470899485       -11.383312809472239
-154.65902410346868       -11.37230222943247
-154.60905349794248       -11.361407307169372
-154.5590828924163        -11.350625941630417
-154.50911228689017       -11.33995608950013
-154.459141681364         -11.329395763108131
-154.40917107583786       -11.318943028431137
-154.35920047031172       -11.30859600318378
-154.30922986478555       -11.298352854993677
-154.25925925925938       -11.288211799656272
-154.20928865373324       -11.278171099465288
-154.1593180482071        -11.268229061614905
-154.10934744268096       -11.258384036670028
-154.05937683715476       -11.248634417101139
-154.0094062316286        -11.238978635880562
-153.95943562610242       -11.229415165136963
-153.90946502057625       -11.219942514865329
-153.85949441505008       -11.210559231689638
-153.80952380952394       -11.201263897675682
-153.7595532039978        -11.192055129191585
-153.7095825984716        -11.182931575813793
-153.65961199294546       -11.17389191927637
-153.60964138741932       -11.164934872461457
-153.55967078189315       -11.156059178429116
-153.50970017636695       -11.147263609484671
-153.4597295708408        -11.138546966281787
-153.40975896531467       -11.129908076959666
-153.3597883597885        -11.121345796312884
-153.30981775426233       -11.112859004992327
-153.25984714873616       -11.104446608735842
-153.20987654321002       -11.096107537627322
-153.15990593768382       -11.087840745382934
-153.10993533215768       -11.079645208663381
-153.0599647266315        -11.07151992641091
-153.00999412110536       -11.063463919210227
-152.9600235155792        -11.055476228672065
-152.91005291005305       -11.047555916838645
-152.8600823045269        -11.039702065609939
-152.81011169900074       -11.031913776189983
-152.76014109347457       -11.02419016855237
-152.7101704879484        -11.016530380924094
-152.66019988242226       -11.00893356928705
-152.6102292768961        -11.001398906896428
-152.56025867136992       -10.993925583815367
-152.51028806584375       -10.986512806465136
-152.46031746031758       -10.979159797190322
-152.4103468547914        -10.971865793838338
-152.36037624926527       -10.964630049352762
-152.31040564373913       -10.95745183137989
-152.260435038213         -10.950330421888086
-152.2104644326868        -10.943265116799326
-152.16049382716062       -10.93625522563258
-152.11052322163448       -10.929300071158465
-152.0605526161083        -10.922398989064822
-152.01058201058214       -10.915551327632818
-151.960611405056         -10.90875644742309
-151.91064079952986       -10.90201372097164
-151.8606701940037        -10.895322532495104
-151.81069958847752       -10.888682277605023
-151.76072898295135       -10.882092363030802
-151.71075837742518       -10.875552206351058
-151.660787771899         -10.869061235733033
-151.61081716637284       -10.862618889679787
-151.5608465608467        -10.85622461678491
-151.51087595532056       -10.849877875494455
-151.46090534979436       -10.843578133875866
-151.41093474426822       -10.83732486939367
-151.36096413874208       -10.831117568691626
-151.3109935332159        -10.824955727381184
-151.26102292768974       -10.818838849836023
-151.2110523221636        -10.812766448992415
-151.16108171663743       -10.806738046155257
-151.11111111111128       -10.800753170809589
-151.06114050558512       -10.794811360437357
-151.01116990005895       -10.788912160339324
-150.96119929453278       -10.783055123461882
-150.91122868900658       -10.777239810228647
-150.8612580834804        -10.7714657883767
-150.81128747795427       -10.76573263279723
-150.76131687242813       -10.760039925380546
-150.71134626690196       -10.754387254865259
-150.6613756613758        -10.748774216691507
-150.61140505584967       -10.743200412858068
-150.5614344503235        -10.73766545178331
-150.51146384479733       -10.732168948169784
-150.4614932392712        -10.726710522872374
-150.41152263374505       -10.721289802769881
-150.36155202821888       -10.71590642063997
-150.3115814226927        -10.710560015037318
-150.26161081716654       -10.705250230174927
-150.21164021164037       -10.699976715808436
-150.16166960611423       -10.694739127123405
-150.11169900058803       -10.689537124625431
-150.0617283950619        -10.684370374033076
-150.01175778953575       -10.679238546173396
-149.96178718400955       -10.674141316880156
-149.91181657848338       -10.669078366894547
-149.86184597295724       -10.664049381768322
-149.8118753674311        -10.659054051769337
-149.7619047619049        -10.654092071789407
-149.7119341563788        -10.649163141254405
-149.66196355085262       -10.644266964036492
-149.61199294532648       -10.639403248368533
-149.5620223398003        -10.634571706760495
-149.51205173427414       -10.629772055917893
-149.46208112874797       -10.625004016662139
-149.41211052322183       -10.620267313852782
-149.36213991769566       -10.615561676311572
-149.3121693121695        -10.61088683674832
-149.26219870664335       -10.60624253168846
-149.21222810111715       -10.60162850140229
-149.16225749559098       -10.597044489835886
-149.11228689006484       -10.592490244543539
-149.06231628453867       -10.58796551662178
-149.0123456790125        -10.5834700606449
-148.96237507348636       -10.579003634601925
-148.9124044679602        -10.574565999834993
-148.86243386243405       -10.57015692097916
-148.81246325690788       -10.56577616590349
-148.7624926513817        -10.56142350565351
-148.71252204585554       -10.557098714394906
-148.6625514403294        -10.55280156935847
-148.6125808348032        -10.548531850786237
-148.56261022927706       -10.544289341878844
-148.51263962375089       -10.540073828743965
-148.46266901822472       -10.53588510034593
-148.41269841269855       -10.531722948456371
-148.3627278071724        -10.52758716760598
-148.31275720164626       -10.523477555037243
-148.2627865961201        -10.519393910658216
-148.21281599059395       -10.515336036997281
-148.16284538506778       -10.511303739158818
-148.11287477954164       -10.507296824779848
-148.06290417401544       -10.503315103987557
-148.0129335684893        -10.49935838935772
-147.96296296296313       -10.495426495873957
-147.912992357437         -10.491519240887868
-147.8630217519108        -10.487636444079946
-147.81305114638462       -10.483777927421333
-147.76308054085848       -10.479943515136306
-147.7131099353323        -10.47613303366555
-147.66313932980614       -10.472346311630185
-147.61316872428          -10.468583179796477
-147.56319811875383       -10.464843471041288
-147.51322751322766       -10.461127020318193
-147.46325690770152       -10.457433664624292
-147.41328630217535       -10.45376324296764
-147.3633156966492        -10.45011559633536
-147.313345091123         -10.446490567662345
-147.26337448559684       -10.442888001800599
-147.2134038800707        -10.439307745489142
-147.16343327454456       -10.435749647324524
-147.11346266901836       -10.432213557731883
-147.06349206349222       -10.428699328936592
-147.01352145796608       -10.425206814936399
-146.9635508524399        -10.421735871474132
-146.91358024691377       -10.418286356010915
-146.8636096413876        -10.41485812769987
-146.81363903586143       -10.411451047360341
-146.76366843033526       -10.408064977452566
-146.71369782480912       -10.404699782052857
-146.66372721928295       -10.401355326829197
-146.61375661375678       -10.398031479017327
-146.5637860082306        -10.394728107397249
-146.51381540270444       -10.391445082270163
-146.4638447971783        -10.38818227543583
-146.41387419165216       -10.384939560170325
-146.36390358612596       -10.38171681120422
-146.31393298059982       -10.378513904701148
-146.26396237507367       -10.375330718236732
-146.2139917695475        -10.372167130777916
-146.16402116402134       -10.369023022662649
-146.1140505584952        -10.365898275579928
-146.06407995296902       -10.362792772550193
-146.01410934744285       -10.359706397906068
-145.96413874191668       -10.356639037273432
-145.91416813639054       -10.353590577552826
-145.86419753086437       -10.350560906901167
-145.8142269253382        -10.347549914713799
-145.76425631981203       -10.344557491606825
-145.7142857142859        -10.34158352939976
-145.66431510875975       -10.33862792109847
-145.61434450323355       -10.33569056087839
-145.56437389770738       -10.332771344068059
-145.51440329218127       -10.32987016713288
-145.46443268665507       -10.326986927659176
-145.41446208112893       -10.324121524338539
-145.3644914756028        -10.321273856952368
-145.31452087007662       -10.318443826356729
-145.26455026455045       -10.315631334467428
-145.21457965902428       -10.312836284245325
-145.1646090534981        -10.310058579681904
-145.11463844797194       -10.307298125785056
-145.06466784244577       -10.304554828565108
-145.0146972369196        -10.301828595021052
-144.96472663139346       -10.299119333127024
-144.91475602586732       -10.296426951818962
-144.86478542034112       -10.293751360981494
-144.81481481481495       -10.291092471435043
-144.76484420928884       -10.28845019492309
-144.7148736037627        -10.28582444409968
-144.66490299823653       -10.283215132517086
-144.6149323927104        -10.280622174613695
-144.56496178718422       -10.278045485702041
-144.51499118165802       -10.275484981957046
-144.46502057613188       -10.272940580404438
-144.4150499706057        -10.270412198909312
-144.36507936507954       -10.267899756164905
-144.31510875955334       -10.265403171681504
-144.2651381540272        -10.26292236577554
-144.21516754850103       -10.260457259558807
-144.1651969429749        -10.258007774927892
-144.11522633744872       -10.255573834553699
-144.06525573192258       -10.253155361871174
-144.01528512639644       -10.250752281069136
-143.96531452087024       -10.24836451708028
-143.91534391534407       -10.245991995571309
-143.86537330981793       -10.243634642933214
-143.81540270429176       -10.241292386271663
-143.7654320987656        -10.23896515339756
-143.71546149323945       -10.23665287281771
-143.66549088771328       -10.234355473725612
-143.6155202821871        -10.232072885992384
-143.56554967666094       -10.229805040157812
-143.5155790711348        -10.227551867421509
-143.46560846560863       -10.225313299634191
-143.41563786008248       -10.223089269289089
-143.36566725455629       -10.220879709513433
-143.31569664903014       -10.2186845540601
-143.265726043504         -10.21650373729931
-143.21575543797786       -10.21433719421048
-143.1657848324517        -10.212184860374135
-143.11581422692555       -10.210046671963978
-143.06584362139938       -10.207922565738986
-143.01587301587318       -10.20581247903567
-142.96590241034704       -10.203716349760393
-142.91593180482087       -10.201634116381781
-142.8659611992947        -10.199565717923246
-142.81599059376853       -10.19751109395558
-142.76601998824236       -10.195470184589638
-142.71604938271622       -10.193442930469118
-142.66607877719008       -10.191429272763411
-142.61610817166388       -10.189429153160535
-142.56613756613774       -10.187442513860164
-142.5161669606116        -10.185469297566707
-142.46619635508543       -10.183509447482487
-142.41622574955926       -10.181562907300993
-142.36625514403312       -10.179629621200188
-142.31628453850695       -10.177709533835907
-142.26631393298078       -10.175802590335316
-142.21634332745464       -10.173908736290437
-142.16637272192847       -10.172027917751748
-142.1164021164023        -10.170160081221841
-142.06643151087613       -10.168305173649147
-142.01646090535          -10.166463142421724
-141.96649029982382       -10.1646339353611
-141.91651969429768       -10.162817500716184
-141.86654908877148       -10.161013787157223
-141.81657848324534       -10.159222743769838
-141.7666078777192        -10.15744432004908
-141.71663727219303       -10.155678465893573
-141.66666666666686       -10.15392513159969
-141.61669606114071       -10.152184267855793
-141.56672545561457       -10.15045582573651
-141.51675485008838       -10.148739756697058
-141.46678424456223       -10.147036012567646
-141.41681363903606       -10.145344545547873
-141.3668430335099        -10.143665308201214
-141.31687242798372       -10.141998253449524
-141.26690182245756       -10.140343334567596
-141.21693121693139       -10.138700505177761
-141.16696061140524       -10.137069719244518
-141.11699000587907       -10.135450931069208
-141.06701940035293       -10.133844095284731
-141.0170487948268        -10.132249166850299
-140.96707818930062       -10.130666101046202
-140.91710758377442       -10.129094853468649
-140.8671369782483        -10.12753538002461
-140.81716637272214       -10.12598763692669
-140.76719576719597       -10.12445158068806
-140.71722516166983       -10.122927168117394
-140.66725455614363       -10.121414356313837
-140.61728395061746       -10.119913102662016
-140.5673133450913        -10.118423364827065
-140.51734273956512       -10.116945100749671
-140.46737213403898       -10.115478268641168
-140.41740152851284       -10.114022826978621
-140.36743092298664       -10.112578734499962
-140.3174603174605        -10.11114595019914
-140.26748971193436       -10.109724433321274
-140.2175191064082        -10.108314143357855
-140.16754850088202       -10.106915040041946
-140.11757789535588       -10.1055270833434
-140.0676072898297        -10.104150233464111
-140.01763668430354       -10.102784450833264
-139.9676660787774        -10.10142969610261
-139.91769547325123       -10.100085930141748
-139.86772486772506       -10.09875311403343
-139.8177542621989        -10.097431209068864
-139.76778365667272       -10.096120176743044
-139.71781305114658       -10.094819978750078
-139.66784244562044       -10.093530576978532
-139.61787184009424       -10.09225193350678
-139.5679012345681        -10.090984010598369
-139.51793062904196       -10.089726770697373
-139.46796002351581       -10.088480176423776
-139.41798941798962       -10.087244190568835
-139.36801881246348       -10.086018776090484
-139.3180482069373        -10.084803896108685
-139.26807760141114       -10.083599513900847
-139.21810699588497       -10.082405592897192
-139.16813639035882       -10.081222096676159
-139.11816578483266       -10.080048988959772
-139.06819517930649       -10.078886233609056
-139.01822457378032       -10.077733794619398
-138.96825396825417       -10.076591636115944
-138.91828336272803       -10.075459722348974
-138.86831275720183       -10.074338017689273
-138.8183421516757        -10.073226486623515
-138.76837154614955       -10.07212509374961
-138.71840094062338       -10.071033803772071
-138.66843033509718       -10.06995258149736
-138.61845972957104       -10.068881391829235
-138.56848912404487       -10.06782019976407
-138.5185185185187        -10.066768970386184
-138.46854791299256       -10.06572766886315
-138.41857730746642       -10.064696260441096
-138.36860670194025       -10.063674710439981
-138.31863609641408       -10.062662984248878
-138.2686654908879        -10.061661047321225
-138.21869488536174       -10.060668865170069
-138.1687242798356        -10.059686403363294
-138.1187536743094        -10.058713627518829
-138.06878306878326       -10.057750503299845
-138.01881246325712       -10.05679699640992
-137.96884185773098       -10.055853072588201
-137.9188712522048        -10.054918697604533
-137.86890064667867       -10.053993837254579
-137.8189300411525        -10.053078457354909
-137.76895943562633       -10.052172523738067
-137.71898883010016       -10.05127600224762
-137.669018224574         -10.050388858733182
-137.61904761904782       -10.049511059045411
-137.56907701352165       -10.048642569030973
-137.51910640799548       -10.047783354527498
-137.46913580246934       -10.046933381358496
-137.4191651969432        -10.04609261532824
-137.36919459141703       -10.045261022216632
-137.31922398589086       -10.044438567774039
-137.26925338036472       -10.043625217716086
-137.21928277483855       -10.042820937718432
-137.16931216931238       -10.042025693411501
-137.11934156378624       -10.041239450375196
-137.0693709582601        -10.040462174133568
-137.01940035273395       -10.039693830149444
-136.96942974720778       -10.038934383819042
-136.9194591416816        -10.03818380046653
-136.86948853615544       -10.037442045338558
-136.81951793062927       -10.036709083598753
-136.7695473251031        -10.03598488032216
-136.71957671957693       -10.035269400489675
-136.6696061140508        -10.034562608982409
-136.6196355085246        -10.033864470576024
-136.56966490299845       -10.03317494993503
-136.5196942974723        -10.032494011607032
-136.46972369194614       -10.031821620016943
-136.41975308641997       -10.03115773946115
-136.36978248089383       -10.030502334101634
-136.31981187536766       -10.029855367960037
-136.26984126984152       -10.029216804911714
-136.21987066431532       -10.028586608679698
-136.16990005878915       -10.027964742828644
-136.11992945326298       -10.027351170758724
-136.0699588477368        -10.026745855699462
-136.01998824221064       -10.02614876070353
-135.9700176366845        -10.025559848640484
-135.92004703115836       -10.024979082190464
-135.87007642563216       -10.024406423837837
-135.82010582010602       -10.023841835864774
-135.77013521457988       -10.023285280344798
-135.72016460905374       -10.022736719136265
-135.67019400352757       -10.022196113875793
-135.6202233980014        -10.021663425971642
-135.57025279247526       -10.02113861659703
-135.5202821869491        -10.0206216466834
-135.47031158142292       -10.020112476913638
-135.42034097589672       -10.019611067715216
-135.37037037037055       -10.019117379253299
-135.32039976484438       -10.018631371423773
-135.2704291593182        -10.018153003846235
-135.22045855379207       -10.017682235856917
-135.17048794826593       -10.017219026501538
-135.1205173427398        -10.01676333452812
-135.07054673721365       -10.016315118379733
-135.0205761316875        -10.01587433618717
-134.9706055261613        -10.015440945761577
-134.9206349206351        -10.015014904587018