% Model:              Nankai_mu004_1E12_xsw12.mph
% Version:            COMSOL 5.5.0.359
% Date:               Dec 18 2024, 07:48
% Dimension:          1
% Nodes:              6631
% Expressions:        1
% Description:        Line graph
% X                       Height
-170                      -20
-169.95002939447386       -20
-169.90005878894772       -20
-169.85008818342152       -20
-169.80011757789538       -20
-169.7501469723692        -20
-169.70017636684304       -20
-169.65020576131687       -20
-169.6002351557907        -20
-169.55026455026456       -20
-169.5002939447384        -20
-169.45032333921222       -20
-169.40035273368608       -20
-169.35038212815994       -20
-169.30041152263374       -20
-169.2504409171076        -20
-169.20047031158146       -20
-169.15049970605529       -20
-169.10052910052912       -20
-169.05055849500297       -20
-169.00058788947683       -20
-168.9506172839507        -20
-168.9006466784245        -20
-168.8506760728983        -20
-168.8007054673721        -20
-168.75073486184596       -20
-168.7007642563198        -20
-168.65079365079367       -20
-168.60082304526753       -20
-168.55085243974136       -20
-168.5008818342152        -20
-168.45091122868905       -20
-168.4009406231629        -20
-168.3509700176367        -20
-168.30099941211057       -20
-168.2510288065844        -20
-168.20105820105826       -20
-168.1510875955321        -20
-168.10111699000592       -20
-168.05114638447975       -20
-168.00117577895358       -20
-167.95120517342744       -20
-167.9012345679013        -20
-167.85126396237513       -20
-167.80129335684893       -20
-167.75132275132276       -20
-167.70135214579665       -20
-167.65138154027048       -20
-167.6014109347443        -20
-167.55144032921817       -20
-167.50146972369197       -20
-167.4514991181658        -20
-167.40152851263963       -20
-167.35155790711346       -20
-167.30158730158732       -20
-167.25161669606115       -20
-167.201646090535         -20
-167.15167548500887       -20
-167.10170487948272       -20
-167.05173427395655       -20
-167.00176366843039       -20
-166.95179306290422       -20
-166.90182245737805       -20
-166.85185185185188       -20
-166.80188124632573       -20
-166.7519106407996        -20
-166.70194003527345       -20
-166.65196942974725       -20
-166.60199882422106       -20
-166.55202821869486       -20
-166.50205761316872       -20
-166.45208700764258       -20
-166.40211640211643       -20
-166.3521457965903        -20
-166.30217519106412       -20
-166.25220458553795       -20
-166.2022339800118        -20
-166.15226337448564       -20
-166.10229276895944       -20
-166.0523221634333        -20
-166.00235155790716       -20
-165.95238095238102       -20
-165.90241034685485       -20
-165.8524397413287        -20
-165.80246913580254       -20
-165.75249853027637       -20
-165.70252792475017       -20
-165.652557319224         -20
-165.60258671369786       -20
-165.55261610817166       -20
-165.50264550264552       -20
-165.45267489711938       -20
-165.40270429159324       -20
-165.35273368606704       -20
-165.3027630805409        -20
-165.25279247501476       -20
-165.20282186948862       -20
-165.15285126396245       -20
-165.10288065843628       -20
-165.05291005291014       -20
-165.002939447384         -20
-164.95296884185777       -20
-164.9029982363316        -20
-164.85302763080546       -20
-164.80305702527926       -20
-164.75308641975312       -20
-164.70311581422698       -20
-164.65314520870083       -20
-164.60317460317466       -20
-164.55320399764852       -20
-164.50323339212238       -20
-164.4532627865962        -20
-164.40329218107001       -20
-164.35332157554384       -20
-164.3033509700177        -20
-164.25338036449156       -20
-164.20340975896534       -20
-164.15343915343917       -20
-164.10346854791302       -20
-164.05349794238685       -20
-164.0035273368607        -20
-163.9535567313346        -20
-163.90358612580843       -20
-163.85361552028226       -20
-163.80364491475612       -20
-163.75367430922995       -20
-163.70370370370378       -20
-163.6537330981776        -20
-163.60376249265144       -20
-163.55379188712527       -20
-163.50382128159913       -20
-163.45385067607296       -20
-163.40388007054682       -20
-163.35390946502068       -20
-163.30393885949454       -20
-163.25396825396834       -20
-163.2039976484422        -20
-163.15402704291603       -20
-163.10405643738983       -20
-163.0540858318637        -20
-163.00411522633752       -20
-162.95414462081135       -20
-162.90417401528515       -20
-162.85420340975898       -20
-162.8042328042328        -20
-162.7542621987067        -20
-162.70429159318053       -20
-162.6543209876544        -20
-162.60435038212827       -20
-162.5543797766021        -20
-162.50440917107593       -20
-162.4544385655498        -20
-162.40446796002362       -20
-162.35449735449743       -20
-162.30452674897126       -20
-162.2545561434451        -20
-162.20458553791894       -20
-162.15461493239278       -20
-162.10464432686666       -20
-162.05467372134052       -20
-162.00470311581435       -20
-161.95473251028812       -20
-161.90476190476195       -20
-161.8547912992358        -20
-161.80482069370962       -20
-161.75485008818347       -20
-161.70487948265733       -20
-161.6549088771312        -20
-161.60493827160502       -20
-161.55496766607885       -20
-161.50499706055268       -20
-161.4550264550265        -20
-161.40505584950034       -20
-161.3550852439742        -20
-161.30511463844806       -20
-161.25514403292192       -20
-161.20517342739575       -20
-161.15520282186958       -20
-161.10523221634347       -20
-161.0552616108173        -20
-161.00529100529113       -20
-160.955320399765         -20
-160.90534979423882       -20
-160.85537918871262       -20
-160.80540858318645       -20
-160.75543797766028       -20
-160.70546737213414       -20
-160.65549676660797       -20
-160.6055261610818        -20
-160.55555555555563       -20
-160.50558495002952       -20
-160.45561434450332       -20
-160.40564373897718       -20
-160.35567313345103       -20
-160.30570252792486       -20
-160.25573192239867       -20
-160.20576131687253       -20
-160.15579071134638       -20
-160.10582010582021       -20
-160.05584950029407       -20
-160.0058788947679        -20
-159.95590828924173       -19.38009967053474
-159.90593768371556       -18.49923119203826
-159.8559670781894        -17.955176520727854
-159.80599647266325       -17.570538612511683
-159.7560258671371        -17.273828760026554
-159.70605526161094       -17.032503309451936
-159.65608465608477       -16.829214062969527
-159.60611405055863       -16.653649279606352
-159.55614344503246       -16.499187204590548
-159.5061728395063        -16.36132458455717
-159.45620223398015       -16.236860497732625
-159.40623162845398       -16.123438475549378
-159.35626102292784       -16.019273521255304
-159.30629041740164       -15.922981161210394
-159.25631981187547       -15.833465960502476
-159.2063492063493        -15.749846300623563
-159.15637860082313       -15.671402131795958
-159.106407995297         -15.597537765032914
-159.05643738977085       -15.527754791923376
-159.0064667842447        -15.461631995007986
-158.9564961787185        -15.398810189600995
-158.90652557319234       -15.338980612405193
-158.8565549676662        -15.281875905555193
-158.80658436214006       -15.227263029703867
-158.7566137566139        -15.174937631183036
-158.70664315108775       -15.124719519333103
-158.65667254556158       -15.076449001388815
-158.60670194003538       -15.029983886922121
-158.5567313345092        -14.985197020231492
-158.50676072898304       -14.941974232818838
-158.45679012345687       -14.900212632959853
-158.40681951793073       -14.85981916789062
-158.3568489124046        -14.820709408079612
-158.30687830687845       -14.782806513652938
-158.25690770135228       -14.746040351174353
-158.20693709582608       -14.710346735274838
-158.1569664902999        -14.675666774535006
-158.10699588477377       -14.641946304882469
-158.05702527924763       -14.609135396819312
-158.00705467372143       -14.577187925228493
-157.95708406819531       -14.546061192458533
-157.90711346266914       -14.51571559695903
-157.857142857143         -14.486114341018114
-157.80717225161683       -14.457223172191183
-157.75720164609066       -14.429010153865917
-157.7072310405645        -14.401445461110391
-157.6572604350383        -14.374501198532876
-157.60728982951213       -14.348151237365608
-157.55731922398596       -14.322371069387765
-157.50734861845982       -14.29713767564151
-157.45737801293365       -14.27242940817895
-157.40740740740748       -14.248225883318174
-157.35743680188136       -14.224507885089729
-157.30746619635522       -14.201257277728002
-157.25749559082905       -14.178456926209607
-157.2075249853029        -14.156090623966612
-157.15755437977677       -14.13414302701098
-157.1075837742506        -14.11259959379992
-157.05761316872443       -14.091446530251927
-157.00764256319826       -14.07067073939311
-156.9576719576721        -14.050259775173458
-156.90770135214592       -14.030201800045667
-156.85773074661975       -14.01048554594436
-156.8077601410936        -13.991100278343863
-156.75778953556747       -13.972035763107604
-156.70781893004127       -13.953282235872898
-156.65784832451513       -13.934830373742011
-156.607877718989         -13.9166712690739
-156.55790711346282       -13.898796405192561
-156.50793650793665       -13.881197633846112
-156.45796590241048       -13.863867154267245
-156.4079952968843        -13.84679749370062
-156.3580246913581        -13.82998148927544
-156.30805408583197       -13.813412271113307
-156.2580834803058        -13.797083246571592
-156.20811287477963       -13.78098808553211
-156.15814226925343       -13.765120706652798
-156.1081716637273        -13.74947526450784
-156.05820105820112       -13.7340461375481
-156.008230452675         -13.718827916820107
-155.95825984714884       -13.703815395386572
-155.90828924162273       -13.689003558397191
-155.85831863609656       -13.674387573761871
-155.80834803057041       -13.659962783383486
-155.75837742504422       -13.64572469490998
-155.70840681951807       -13.631668973969678
-155.6584362139919        -13.61779143685586
-155.60846560846574       -13.604088043630153
-155.55849500293954       -13.590554891615941
-155.50852439741337       -13.577188209255903
-155.45855379188723       -13.563984350309251
-155.40858318636106       -13.550939788366566
-155.35861258083492       -13.538051111661533
-155.30864197530877       -13.52531501816042
-155.2586713697826        -13.512728310911763
-155.2087007642564        -13.50028789363984
-155.15873015873024       -13.487990766566737
-155.10875955320412       -13.475834022448922
-155.05878894767798       -13.463814842815253
-155.0088183421518        -13.45193049439433
-154.95884773662567       -13.440178325719767
-154.9088771310995        -13.428555763902835
-154.85890652557333       -13.417060311562844
-154.80893592004716       -13.405689543905893
-154.758965314521         -13.394441105943606
-154.70899470899485       -13.383312709843826
-154.65902410346868       -13.372302132405801
-154.60905349794248       -13.361407212653003
-154.5590828924163        -13.350625849536954
-154.50911228689017       -13.339955999746017
-154.459141681364         -13.32939567561345
-154.40917107583786       -13.318942943119412
-154.35920047031172       -13.308595919981801
-154.30922986478555       -13.298352773831336
-154.25925925925938       -13.288211720466402
-154.20928865373324       -13.278171022183514
-154.1593180482071        -13.268228986179507
-154.10934744268096       -13.258383963021807
-154.05937683715476       -13.248634345183296
-154.0094062316286        -13.23897856563858
-153.95943562610242       -13.229415096518498
-153.90946502057625       -13.219942447820099
-153.85949441505008       -13.210559166169338
-153.80952380952394       -13.201263833633876
-153.7595532039978        -13.192055066583631
-153.7095825984716        -13.182931514596753
-153.65961199294546       -13.173891859408936
-153.60964138741932       -13.164934813903871
-153.55967078189315       -13.156059121143105
-153.50970017636695       -13.147263553433378
-153.4597295708408        -13.138546911429708
-153.40975896531467       -13.129908023272593
-153.3597883597885        -13.121345743757843
-153.30981775426233       -13.112858953537526
-153.25984714873616       -13.104446558350624
-153.20987654321002       -13.096107488282113
-153.15990593768382       -13.087840697049195
-153.10993533215768       -13.079645161313566
-153.0599647266315        -13.071519880018426
-153.00999412110536       -13.063463873749393
-152.9600235155792        -13.055476184118076
-152.91005291005305       -13.047555873167532
-152.8600823045269        -13.039702022798538
-152.81011169900074       -13.031913734215902
-152.76014109347457       -13.024190127393956
-152.7101704879484        -13.016530340560404
-152.66019988242226       -13.008933529697831
-152.6102292768961        -13.001398868062077
-152.56025867136992       -12.99392554571691
-152.51028806584375       -12.986512769084213
-152.46031746031758       -12.979159760509146
-152.4103468547914        -12.971865757839689
-152.36037624926527       -12.964630014019953
-152.31040564373913       -12.957451796696759
-152.260435038213         -12.950330387838966
-152.2104644326868        -12.943265083369031
-152.16049382716062       -12.93625519280639
-152.11052322163448       -12.9293000389221
-152.0605526161083        -12.922398957404438
-152.01058201058214       -12.915551296534977
-151.960611405056         -12.908756416874757
-151.91064079952986       -12.90201369096017
-151.8606701940037        -12.895322503008211
-151.81069958847752       -12.888682248630786
-151.76072898295135       -12.882092334557646
-151.71075837742518       -12.875552178367736
-151.660787771899         -12.869061208228622
-151.61081716637284       -12.862618862643675
-151.5608465608467        -12.856224590206786
-151.51087595532056       -12.849877849364292
-151.46090534979436       -12.84357810818392
-151.41093474426822       -12.83732484413047
-151.36096413874208       -12.831117543847954
-151.3109935332159        -12.82495570294808
-151.26102292768974       -12.81883882580477
-151.2110523221636        -12.812766425354534
-151.16108171663743       -12.806738022902492
-151.11111111111128       -12.80075314793391
-151.06114050558512       -12.794811337930945
-151.01116990005895       -12.788912138194565
-150.96119929453278       -12.783055101671364
-150.91122868900658       -12.777239788785154
-150.8612580834804        -12.771465767273199
-150.81128747795427       -12.765732612026872
-150.76131687242813       -12.76003990493666
-150.71134626690196       -12.75438723474134
-150.6613756613758        -12.748774196881214
-150.61140505584967       -12.74320039335523
-150.5614344503235        -12.737665432581899
-150.51146384479733       -12.732168929263931
-150.4614932392712        -12.726710504256353
-150.41152263374505       -12.721289784438108
-150.36155202821888       -12.715906402586993
-150.3115814226927        -12.710559997257828
-150.26161081716654       -12.705250212663737
-150.21164021164037       -12.699976698560484
-150.16166960611423       -12.694739110133755
-150.11169900058803       -12.689537107889265
-150.0617283950619        -12.684370357545683
-150.01175778953575       -12.679238529930187
-149.96178718400955       -12.674141300876643
-149.91181657848338       -12.66907835112635
-149.86184597295724       -12.664049366231161
-149.8118753674311        -12.659054036459034
-149.7619047619049        -12.654092056701879
-149.7119341563788        -12.649163126385663
-149.66196355085262       -12.644266949382637
-149.61199294532648       -12.639403233925753
-149.5620223398003        -12.63457169252507
-149.51205173427414       -12.62977204188618
-149.46208112874797       -12.62500400283058
-149.41211052322183       -12.620267300217899
-149.36213991769566       -12.615561662869961
-149.3121693121695        -12.610886823496655
-149.26219870664335       -12.606242518623485
-149.21222810111715       -12.601628488520824
-149.16225749559098       -12.597044477134812
-149.11228689006484       -12.592490232019811
-149.06231628453867       -12.587965504272415
-149.0123456790125        -12.583470048466983
-148.96237507348636       -12.579003622592598
-148.9124044679602        -12.574565987991463
-148.86243386243405       -12.570156909298689
-148.81246325690788       -12.565776154383398
-148.7624926513817        -12.561423494291176
-148.71252204585554       -12.557098703187764
-148.6625514403294        -12.552801558304003
-148.6125808348032        -12.548531839881981
-148.56261022927706       -12.544289331122386
-148.51263962375089       -12.540073818132942
-148.46266901822472       -12.535885089878025
-148.41269841269855       -12.531722938129318
-148.3627278071724        -12.527587157417553
-148.31275720164626       -12.523477544985266
-148.2627865961201        -12.519393900740553
-148.21281599059395       -12.51533602721184
-148.16284538506778       -12.511303729503544
-148.11287477954164       -12.507296815252735
-148.06290417401544       -12.50331509458663
-148.0129335684893        -12.499358380081047
-147.96296296296313       -12.49542648671964
-147.912992357437         -12.49151923185405
-147.8630217519108        -12.487636435164804
-147.81305114638462       -12.483777918623076
-147.76308054085848       -12.47994350645318
-147.7131099353323        -12.476133025095836
-147.66313932980614       -12.472346303172193
-147.61316872428          -12.468583171448552
-147.56319811875383       -12.4648434628018
-147.51322751322766       -12.461127012185552
-147.46325690770152       -12.457433656596928
-147.41328630217535       -12.453763235044017
-147.3633156966492        -12.450115588513968
-147.313345091123         -12.446490559941704
-147.26337448559684       -12.442887994179255
-147.2134038800707        -12.43930773796567
-147.16343327454456       -12.43574963989752
-147.11346266901836       -12.43221355039997
-147.06349206349222       -12.428699321698419
-147.01352145796608       -12.425206807790637
-146.9635508524399        -12.421735864419478
-146.91358024691377       -12.418286349046088
-146.8636096413876        -12.414858120823611
-146.81363903586143       -12.411451040571412
-146.76366843033526       -12.408064970749757
-146.71369782480912       -12.40469977543497
-146.66372721928295       -12.40135532029506
-146.61375661375678       -12.398031472565789
-146.5637860082306        -12.394728101027177
-146.51381540270444       -12.391445075980444
-146.4638447971783        -12.388182269225368
-146.41387419165216       -12.384939554038045
-146.36390358612596       -12.381716805149063
-146.31393298059982       -12.378513898722076
-146.26396237507367       -12.375330712332723
-146.2139917695475        -12.372167124947964
-146.16402116402134       -12.369023016905764
-146.1140505584952        -12.36589826989514
-146.06407995296902       -12.362792766936545
-146.01410934744285       -12.359706392362618
-145.96413874191668       -12.356639031799258
-145.91416813639054       -12.353590572147017
-145.86419753086437       -12.350560901562828
-145.8142269253382        -12.347549909442048
-145.76425631981203       -12.344557486400795
-145.7142857142859        -12.341583524258601
-145.66431510875975       -12.33862791602134
-145.61434450323355       -12.335690555864467
-145.56437389770738       -12.332771339116528
-145.51440329218127       -12.329870162242942
-145.46443268665507       -12.326986922830045
-145.41446208112893       -12.324121519569436
-145.3644914756028        -12.321273852242536
-145.31452087007662       -12.318443821705415
-145.26455026455045       -12.315631329873892
-145.21457965902428       -12.31283627970884
-145.1646090534981        -12.310058575201753
-145.11463844797194       -12.307298121360533
-145.06466784244577       -12.304554824195517
-145.0146972369196        -12.30182859070571
-144.96472663139346       -12.299119328865256
-144.91475602586732       -12.296426947610104
-144.86478542034112       -12.293751356824895
-144.81481481481495       -12.291092467330056
-144.76484420928884       -12.288450190869083
-144.7148736037627        -12.285824440096023
-144.66490299823653       -12.283215128563167
-144.6149323927104        -12.280622170708908
-144.56496178718422       -12.278045481845785
-144.51499118165802       -12.275484978148734
-144.46502057613188       -12.272940576643489
-144.4150499706057        -12.270412195195153
-144.36507936507954       -12.267899752496971
-144.31510875955334       -12.265403168059242
-144.2651381540272        -12.262922362198399
-144.21516754850103       -12.260457256026248
-144.1651969429749        -12.258007771439383
-144.11522633744872       -12.255573831108716
-144.06525573192258       -12.253155358469197
-144.01528512639644       -12.250752277709656
-143.96531452087024       -12.248364513762793
-143.91534391534407       -12.245991992295322
-143.86537330981793       -12.243634639698234
-143.81540270429176       -12.241292383077209
-143.7654320987656        -12.238965150243157
-143.71546149323945       -12.236652869702889
-143.66549088771328       -12.234355470649907
-143.6155202821871        -12.232072882955341
-143.56554967666094       -12.22980503715898
-143.5155790711348        -12.227551864460443
-143.46560846560863       -12.225313296710453
-143.41563786008248       -12.223089266402246
-143.36566725455629       -12.22087970666306
-143.31569664903014       -12.218684551245776
-143.265726043504         -12.21650373452062
-143.21575543797786       -12.21433719146701
-143.1657848324517        -12.212184857665486
-143.11581422692555       -12.210046669289746
-143.06584362139938       -12.20792256309878
-143.01587301587318       -12.205812476429099
-142.96590241034704       -12.203716347187074
-142.91593180482087       -12.201634113841335
-142.8659611992947        -12.1995657154153
-142.81599059376853       -12.197511091479763
-142.76601998824236       -12.195470182145586
-142.71604938271622       -12.193442928056472
-142.66607877719008       -12.191429270381814
-142.61610817166388       -12.189429150809637
-142.56613756613774       -12.187442511539619
-142.5161669606116        -12.185469295276171
-142.46619635508543       -12.183509445221622
-142.41622574955926       -12.181562905069466
-142.36625514403312       -12.179629618997671
-142.31628453850695       -12.177709531662074
-142.26631393298078       -12.175802588189843
-142.21634332745464       -12.17390873417301
-142.16637272192847       -12.17202791566205
-142.1164021164023        -12.170160079159562
-142.06643151087613       -12.168305171613982
-142.01646090535          -12.166463140413372
-141.96649029982382       -12.16463393337926
-141.91651969429768       -12.16281749876056
-141.86654908877148       -12.161013785227524
-141.81657848324534       -12.159222741865776
-141.7666078777192        -12.15744431817037
-141.71663727219303       -12.155678464039932
-141.66666666666686       -12.15392512977084
-141.61669606114071       -12.15218426605146
-141.56672545561457       -12.15045582395642
-141.51675485008838       -12.148739754940944
-141.46678424456223       -12.147036010835242
-141.41681363903606       -12.145344543838917
-141.3668430335099        -12.143665306515445
-141.31687242798372       -12.141998251786685
-141.26690182245756       -12.140343332927435
-141.21693121693139       -12.138700503560026
-141.16696061140524       -12.13706971764896
-141.11699000587907       -12.135450929495581
-141.06701940035293       -12.133844093732796
-141.0170487948268        -12.132249165319811
-140.96707818930062       -12.130666099536928
-140.91710758377442       -12.129094851980353
-140.8671369782483        -12.12753537855706
-140.81716637272214       -12.125987635479657
-140.76719576719597       -12.124451579261315
-140.71722516166983       -12.122927166710713
-140.66725455614363       -12.121414354926998
-140.61728395061746       -12.1199131012948
-140.5673133450913        -12.118423363479254
-140.51734273956512       -12.11694509942105
-140.46737213403898       -12.115478267331524
-140.41740152851284       -12.114022825687742
-140.36743092298664       -12.112578733227643
-140.3174603174605        -12.111145948945172
-140.26748971193436       -12.109724432085455
-140.2175191064082        -12.108314142139982
-140.16754850088202       -12.106915038841818
-140.11757789535588       -12.10552708216082
-140.0676072898297        -12.104150232298883
-140.01763668430354       -12.102784449685196
-139.9676660787774        -12.101429694971507
-139.91769547325123       -12.100085929027424
-139.86772486772506       -12.098753112935695
-139.8177542621989        -12.097431207987531
-139.76778365667272       -12.09612017567793
-139.71781305114658       -12.094819977701
-139.66784244562044       -12.09353057594531
-139.61787184009424       -12.092251932489237
-139.5679012345681        -12.090984009596326
-139.51793062904196       -12.089726769710657
-139.46796002351581       -12.08848017545221
-139.41798941798962       -12.087244189612251
-139.36801881246348       -12.086018775148707
-139.3180482069373        -12.084803895181551
-139.26807760141114       -12.083599512988187
-139.21810699588497       -12.082405591998842
-139.16813639035882       -12.081222095791952
-139.11816578483266       -12.080048988089551
-139.06819517930649       -12.078886232752657
-139.01822457378032       -12.077733793776662
-138.96825396825417       -12.076591635286714
-138.91828336272803       -12.075459721533093
-138.86831275720183       -12.074338016886589
-138.8183421516757        -12.073226485833873
-138.76837154614955       -12.072125092972858
-138.71840094062338       -12.071033803008056
-138.66843033509718       -12.069952580745937
-138.61845972957104       -12.068881391090255
-138.56848912404487       -12.067820199037385
-138.5185185185187        -12.066768969671651
-138.46854791299256       -12.065727668160626
-138.41857730746642       -12.064696259750438
-138.36860670194025       -12.063674709761047
-138.31863609641408       -12.062662983581527
-138.2686654908879        -12.06166104666532
-138.21869488536174       -12.060668864525471
-138.1687242798356        -12.059686402729868
-138.1187536743094        -12.058713626896441
-138.06878306878326       -12.05775050268836
-138.01881246325712       -12.056796995809206
-137.96884185773098       -12.055853071998124
-137.9188712522048        -12.054918697024965
-137.86890064667867       -12.053993836685391
-137.8189300411525        -12.053078456795971
-137.76895943562633       -12.052172523189252
-137.71898883010016       -12.051276001708805
-137.669018224574         -12.050388858204242
-137.61904761904782       -12.04951105852622
-137.56907701352165       -12.048642568521407
-137.51910640799548       -12.047783354027437
-137.46913580246934       -12.04693338086782
-137.4191651969432        -12.046092614846827
-137.36919459141703       -12.045261021744366
-137.31922398589086       -12.0444385673108
-137.26925338036472       -12.04362521726176
-137.21928277483855       -12.0428209372729
-137.16931216931238       -12.04202569297465
-137.11934156378624       -12.041239449946914
-137.0693709582601        -12.040462173713738
-137.01940035273395       -12.039693829737956
-136.96942974720778       -12.038934383415786
-136.9194591416816        -12.038183800071394
-136.86948853615544       -12.037442044951435
-136.81951793062927       -12.036709083219531
-136.7695473251031        -12.035984879950734
-136.71957671957693       -12.035269400125939
-136.6696061140508        -12.034562608626254
-136.6196355085246        -12.033864470227348
-136.56966490299845       -12.033174949593727
-136.5196942974723        -12.032494011273
-136.46972369194614       -12.03182161969008
-136.41975308641997       -12.031157739141355
-136.36978248089383       -12.030502333788803
-136.31981187536766       -12.029855367654074
-136.26984126984152       -12.029216804612517
-136.21987066431532       -12.028586608387167
-136.16990005878915       -12.027964742542684
-136.11992945326298       -12.027351170479239
-136.0699588477368        -12.026745855426356
-136.01998824221064       -12.026148760436705
-135.9700176366845        -12.025559848379846
-135.92004703115836       -12.024979081935921
-135.87007642563216       -12.024406423589294
-135.82010582010602       -12.02384183562214
-135.77013521457988       -12.02328528010798
-135.72016460905374       -12.022736718905175
-135.67019400352757       -12.02219611365034
-135.6202233980014        -12.021663425751735
-135.57025279247526       -12.02113861638258
-135.5202821869491        -12.020621646474321
-135.47031158142292       -12.020112476709842
-135.42034097589672       -12.019611067516617
-135.37037037037055       -12.019117379059809
-135.32039976484438       -12.018631371235308
-135.2704291593182        -12.018153003662713
-135.22045855379207       -12.01768223567825
-135.17048794826593       -12.017219026327645
-135.1205173427398        -12.016763334358918
-135.07054673721365       -12.016315118215141
-135.0205761316875        -12.015874336027107
-134.9706055261613        -12.015440945605961
-134.9206349206351        -12.015014904435771